/*--------------------------------*- C++ -*----------------------------------*\
| =========                 |                                                 |
| \\      /  F ield         | OpenFOAM: The Open Source CFD Toolbox           |
|  \\    /   O peration     | Version:  2.2.1                                 |
|   \\  /    A nd           | Web:      www.OpenFOAM.org                      |
|    \\/     M anipulation  |                                                 |
\*---------------------------------------------------------------------------*/
FoamFile
{
    version     2.0;
    format      ascii;
    class       volScalarField;
    location    "0";
    object      T;
}
// * * * * * * * * * * * * * * * * * * * * * * * * * * * * * * * * * * * * * //

dimensions      [0 0 0 1 0 0 0];

internalField   nonuniform List<scalar> 
10292
(
990.343
991.678
1066.75
980.089
937.357
1006.01
984.654
911.657
1179.57
1108.21
1035.75
1028.11
1058.83
952.91
920.394
975.762
1069.48
947.551
943.2
919.211
971.289
1141.43
1101.71
912.731
1104.33
1026.49
1037.07
1044.41
1110.61
1113
1072.5
936.47
1123.6
927.732
955.89
920.107
1176.21
947.636
1009.29
984.13
991.606
909.236
933.019
969.419
1141.35
1019.16
1056.72
1020.65
911.41
961.725
996.394
1002.53
911.22
920.734
907.327
905.778
916.346
975.495
913.744
1070.14
1071.4
934.248
994.572
1125.07
974.24
945.427
930.838
1025.27
986.055
1036.6
1067.26
984.173
983.755
1000.64
1028.19
914.672
975.719
926.909
1181.35
1172.99
940.339
961.468
1019.66
1099.19
995.416
922.754
933.065
1011.84
905.929
929.012
1036.4
984.662
928.595
933.428
903.818
936.271
951.509
980
1120.41
917.742
970.001
982.435
931.203
1057.9
951.118
1050.09
1000.98
906.934
1121.89
932.967
1138.38
946.596
910.585
1002.12
951.058
950.027
1086.42
989.069
981.36
987.672
947.3
914.442
920.82
1085.1
994.279
945.122
949.525
1098.59
1153.12
993.714
1122.53
961.374
1070.11
1075.02
968.501
994
927.04
916.505
929.515
910.156
906.02
917.482
958.642
922.638
943.85
905.56
953.687
939.777
959.594
930.472
938.604
929.66
1032.09
1087.34
986.752
1025.04
1067.57
1091.01
906.046
1033.09
1136.83
923.06
1066.34
914.054
1003.99
1017.27
909.771
996.712
1059.15
925.478
1169.9
1058.62
1002.53
1062.39
1156.04
906.339
924.043
911.289
920.488
1058.79
908.255
1073.2
1010.41
974.725
1088.22
1060.52
1086.31
1063.45
1062.32
1179.96
959.843
1165.02
1160.96
985.69
1081.91
1049.81
907.857
1168.14
921.505
1006.52
1185.85
1016.74
918.256
986.28
1045.1
1097.5
916.107
985.739
1074.86
996.898
905.575
1176.25
925.35
1003.38
1034.41
909.927
916.868
968.743
1132.69
1111.58
1140.5
1005.77
970.655
997.552
1144.22
1029.07
919.206
911.271
903.123
920.356
950.023
965.248
941.557
993.051
1062.36
1062.36
986.587
998.846
914.532
1126.92
1089.02
1010.22
995.512
905.051
924.019
1079.13
1024.1
1013.69
1139.99
904.27
931.546
1110.55
964.705
1078.27
1018.34
1055.81
1142.27
919.061
1074.01
1060.33
926.486
1019.61
1139.44
1167.68
916.773
941.28
971.191
1073.41
1099.99
1044.01
1053.12
922.443
1096.29
948.588
911.678
1059.24
1109.52
943.691
1022.95
951.935
972.988
1066.26
1036.21
1024.84
1063.19
1111.67
1105.23
1091.29
1129.58
983.108
1083.52
1063.29
1005.88
908.412
904.641
980.48
981.325
925.673
961.47
1077.7
1130.32
1097.33
1068.69
971.243
928.667
989.866
1010.95
1117.51
993.008
1083.19
1087.59
1037.6
963.763
993.34
907.794
982.01
971.423
1041.91
909.246
948.666
1031.39
1099.71
963.874
972.75
1065.98
1056.17
961.591
909.664
937.714
949.558
1028.91
922.1
1072.35
921.304
960.053
950.524
994.895
976.082
987.916
958.548
1036.67
969.729
1075.64
1074.09
909.335
962.472
1151
1087.5
1071.43
943.929
992.672
983.155
988.01
1154.24
1131.93
1015.57
905.152
984.644
1071.95
909.826
1087.9
953.601
1093.12
1170.91
1011.69
1158.7
911.979
1008.73
1068.47
1113.34
999.502
972.186
1041.17
1020.81
1164.59
1072.12
1137.51
1119.47
1036.61
928.039
1059.54
929.395
941.477
983.611
937.368
977.712
936.475
998.992
1098.04
1040.17
953.093
1038.44
1061.96
1078.37
980.362
1121.91
1019.39
1089.05
905.905
947.473
928.331
912.473
979.827
1016.49
932.989
1127.63
1028.82
956.074
942.648
926.86
1018.24
1101.68
1138.88
984.052
923.316
930.078
1042.5
1053.94
970.946
978.573
1038.62
938.017
913.313
954.593
982.991
963.015
914.038
903.849
1027.05
1066.31
927.027
1027.48
1003.8
1117.28
1114.13
1112.81
1013.17
1043.53
1134.29
906.986
992.188
906.36
1012.05
1001.95
963.48
977.866
913.221
983.02
1117.9
909.198
959.361
931.741
1184.07
983.542
1096.13
924.001
917.284
903.747
1083.01
1100.72
1021.11
1079.99
1041.3
1047.38
911.95
997.5
980.522
1112.08
1004.88
1015.91
958.729
1056.8
1084.03
914.321
922.702
1081.16
913.216
1028.39
1019.37
1055.5
1102.18
973.899
965.066
929.427
1144.72
979.707
1009.18
1029.89
905.018
992.73
1118.03
1025.72
982.223
1059.63
975.414
1031.19
912.075
1045.05
1117.25
924.602
939.731
919.261
1015.39
1110.35
932.36
1087.2
951.26
1116.13
1055.65
1120.22
996.926
1021.24
1084.71
927.369
923.742
971.925
925.449
1056.77
976.951
1121.19
1103.41
1003.11
1097.42
976.924
1072.68
934.097
1012.14
962.947
933.034
1004.71
1027.81
915.631
991.416
990.387
975.952
942.286
1064.58
938.927
978.56
945.91
999.281
944.406
908.376
1124.19
1005.02
915.614
1081.39
1067.09
908.787
926.847
965.045
950.623
1154.45
1005.87
1030.78
1027.97
1053.86
910.972
908.221
1050.92
1038.41
1161.82
914.206
1037.7
918.062
1131.26
921.751
941.486
928.651
1060.99
968.409
1127.6
1072.49
911.916
1078.98
1034.7
947.048
1132.01
1163.14
1021.49
1016.16
1112.37
958.829
1046.71
917.229
906.77
967.026
994.465
918.586
963.586
983.675
955.786
973.517
982.833
1145.16
914.838
1063.46
930.406
942.399
980.443
1130.36
1129.25
1149.78
1005.13
938.904
1122.71
1077.4
1115.18
1024.08
972.923
1180.4
1125.81
1015.99
1093.65
1004.82
925.455
1019.92
937.953
960.756
972.037
1000.05
968.378
952.183
992.49
927.343
909.104
925.16
1004.5
1005.36
1050.68
1043.79
1014.28
997.327
937.585
911.034
1085
1094.62
1027.25
1063.61
1041.51
934.844
1004.85
1023.29
1016.52
1041.46
971.075
1051.81
982.611
1075.35
936.727
908.636
950.64
984.748
954.457
905.456
974.254
934.85
955.994
1062.01
981.236
972.906
979.091
982.355
922.856
963.464
929.241
922.155
1146.8
1030.19
957.057
1062.51
982.05
944.779
1045.05
1021.53
1000.29
1038.04
955.797
983.566
994.545
948.474
1024.07
906.92
1057.13
930.122
924.632
909.925
939.179
975.497
989.054
938.331
977.469
1142.95
1111.19
995.709
996.835
968.371
1045.35
1078.17
912.244
1114.92
1063.93
904.3
1185.61
1050.43
1104.09
1016.82
965.449
923.793
960.906
944.743
930.467
1079.51
940.658
918.318
1055.78
979.435
1011.06
1012.22
908.264
1005.39
1053.04
987.649
1124.31
1020.33
1024.86
971.418
960.674
950.138
1038.48
1024.73
1015.04
970.078
1086.61
986.663
970.372
921.43
1132.08
1046.61
946.476
921.888
928.883
918.986
907.439
925.839
906.765
996.473
986.721
966.843
992.311
905.481
973.454
969.947
929.131
978.373
976.572
1131.64
956.66
947.665
1155.84
958.043
908.214
964.757
915.019
959.028
907.459
1028.76
917.225
962.196
940.57
920.851
1123.63
988.685
1110.52
959.692
1021.41
997.205
974.054
978.062
1121.58
948.298
940.86
1085.24
975.657
926.116
1138.5
1070.91
1149.81
962.307
1065.89
1075.55
1069.45
1136.53
909.457
955.927
926.223
943.421
973.35
1151.29
1037.44
904.199
994.077
1006.47
1004.84
1057.49
984.959
992.781
1038.44
906.947
939.37
1012.95
918.872
1065.86
974.236
1143.25
974.866
936.541
1068.03
1042.96
943.971
1152.68
907.807
973.623
1055.92
905.158
1005.86
970.802
917.901
1055.35
951.872
987.465
916.31
942.848
991.607
982.497
970.685
916.458
925.759
922.898
947.505
928.119
937.95
984.831
1005.14
1069.06
1022.98
986.129
1136.74
975.719
909.45
1088.64
907.185
1088.59
965.708
907.508
906.221
1014.25
917.421
1116.82
914.38
1100.77
1147.97
923.635
974.461
1001.44
1102.28
1049.23
1024.63
1001.92
1124.64
950.736
926.271
938.715
1090.33
986.748
948.466
927.542
1123.5
1076.05
1117.51
914.868
977.35
995.149
945.714
934.845
1095.36
1081.81
1004.72
959.107
913.45
1059.81
1093.6
1032.37
1034.59
926.808
1076.75
1073.54
970.253
1002.99
912.413
1004.68
949.297
1181.98
1041.12
1015.29
1133.7
1049.33
1114.04
972.885
1034.67
939.319
950.467
1016.09
1131.78
1000.66
1004.45
975.148
1144.18
1050.91
928.051
959.628
1146.08
1078.53
1017.72
929.918
983.133
918.625
968.076
998.909
1078.88
989.563
1052.44
1006.23
1029.92
1024.73
1010.78
1051.64
1081.51
1035.12
959.974
1068.16
1102.79
981.179
1047.71
1149.96
985.722
1068.13
961.361
1139.54
915.626
1046.62
1152.62
1029.46
1100.49
1112.47
966.227
1135.98
984.152
1073.83
942.045
954.078
930.988
974.954
931.198
942.182
991.805
1127.39
1034.91
1014.12
1115.4
959.164
1137.78
1013.64
908.61
985.764
1043.35
943.935
984.535
1008.14
1067.9
1108.81
1133.81
969.391
1172.85
1124.99
953.167
954.008
922.489
922.329
927.665
1167.72
971.782
1010.93
1176.88
905.074
1182.46
934.759
952.69
927.907
1001.2
1079.37
1176.61
1067.85
916.389
971.605
1134.55
1013.3
969.603
977.523
1082.63
915.765
910.734
926.649
961.68
985.557
1060.68
946.299
1006.36
933.314
1072.76
948.43
959.818
992.442
1072.67
1004.61
1183.24
1187.66
918.88
925.86
935.612
908.107
924.633
929.752
939.554
961.016
1173.41
945.066
920.688
923.677
1015.67
1022.86
1186.01
905.388
999.165
909.436
918.893
908.667
954.046
975.238
1115.56
1048.45
1001.05
902.991
923.564
1044.06
982.031
986.106
1006.61
1087.26
982.273
915.072
1131.79
910.417
1026.8
909.901
988.322
1010.18
1122.16
1036.07
1002.24
1045.34
1126.05
1107.78
1138.25
1041.92
996.347
929.706
1164.78
1127.63
953.251
1178.11
1030.78
1136.99
1133.39
1132.46
919.558
982.314
1000.89
1161.91
983.787
1000.5
972.37
944.322
1092.02
1155.52
973.35
1147.78
992.176
1065.13
975.322
1017.97
1041.74
1173.04
1051.26
1089.02
1117.11
1034.51
1037.37
979.515
1143.23
1010.93
1112
1120.49
1106.85
949.565
921.852
1012.28
1033.29
1121.26
1074.14
998.376
970.763
997.246
1031.9
987.284
1003.02
1002.56
1084.6
1116.21
1101.15
1153.06
919.569
997.498
1126.74
1072.2
1050.69
905.406
1039.92
1188.04
975.266
1137.46
973.344
963.774
968.28
927.126
967.669
1004.31
987.197
993.143
1011.64
1041.92
1096.18
974.472
1045.67
1101.07
1022.14
1037.5
991.012
1139.87
1179.5
921.397
1048.66
933.626
903.971
998.107
916.59
1145.97
1083.14
947.84
967.402
934.177
979.634
980.396
1174.13
990.68
1159.19
913.434
908.339
1011.56
1058.34
923.683
1040.33
1004.65
966.562
1166.58
1081.41
1109.89
929.353
939.854
1182.99
1082.46
1025.58
1031.21
935.087
917.383
906.624
905.099
1138.95
911.884
1082.34
1030.7
939.171
1047.47
1187.2
951.065
1186.93
971.117
992.423
912.975
1074.06
1153.2
1186.23
1055.31
1010.82
1149.83
1180.45
1060.39
1002.02
1009.54
970.628
1153.39
1183.84
963.416
928.632
1091.97
1092.77
984.139
965.037
929.427
1110.24
1084.14
1088.98
958.11
1142.85
1154.02
1011.26
953.402
1015.01
985.038
1021.47
1049.64
1126.78
985.342
971.238
970.545
952.484
1016.06
983.824
1010.13
984.738
1035.33
969.788
1018.4
1064.94
971.092
905.7
910.765
975.279
999.844
988.672
922.67
964.397
1131.48
983.01
1069.6
1084.87
971.393
1058.25
927.654
972.191
1003.84
959.779
1062.49
942.952
952.018
909.54
910.85
944.078
917.029
995.208
1115.54
944.928
1035.9
931.522
958.999
921.588
1044.82
945.592
936.606
1002.84
972.857
981.788
929.151
1083.13
996.879
996.699
1051.56
1013.93
984.348
996.842
1048.02
985.764
933.989
991.869
1043.81
976.803
916.431
1002.17
1018.41
983.63
1036.36
994.064
1071.87
984.394
977.611
975.203
1043.41
983.667
1081.46
970.872
1068.5
1007.02
921.738
919.882
1032.97
995.147
1068.61
918.908
914.513
984.369
987.198
1055.05
993.331
986.194
911.058
917.844
1061
987.784
984.866
1004.32
925.237
1069.15
918.601
912.43
1002.15
914.821
977.186
966.754
1076.86
961.761
996.312
987.411
1028.52
944.433
997.411
960.085
916.384
1039.12
966.333
1046.12
929.822
922.425
954.466
962.69
925.232
955.158
904.83
960.525
1037.03
916.077
929.319
980.972
1049.05
949.395
967.647
953.598
1051.27
935.408
976.521
1103.34
963.904
979.526
1052.01
1041.69
1082.89
1022.69
990.474
937.033
989.01
969.458
1191.41
1046.42
950.963
1063.57
1065.66
1114.08
935.154
983.651
1043.12
989.834
1016.52
974.769
960.901
1001.99
1021.63
916.115
1026.01
938.018
914.322
1081.82
952.94
1146.61
979.27
979.472
945.41
1133.27
1007.36
907.425
952.977
924.601
913.255
1081.46
903.11
989.773
1035.61
956.007
1024.92
975.277
1038.96
1001.34
1074.04
1068.18
983.904
929.431
929.486
905.966
906.051
1011.25
924.653
1121.3
1068.32
1049.77
1107.21
1085.5
915.352
991.904
972.451
1113.72
1112.35
1062.78
1050.56
905.051
1004.87
917.679
945.391
931.26
942.756
959.886
993.12
966.124
969.943
995.599
994.191
962.354
1169.88
955.283
922.719
936.99
932.893
972.296
998.399
962.853
1051.34
932.476
948.586
976.967
1083.54
999.45
1070.07
986.881
974.95
947.247
925.229
908.33
991.241
1003.84
1054.54
915.982
1052.05
978.388
959.163
944.633
1185.16
1001.86
1029.62
1088.07
965.616
960.603
966.805
1036.49
1087.36
978.833
968.963
1082.03
915.43
944.869
940.408
959.842
930.264
1106.59
924.737
984.989
912.764
1087.09
1008.38
1044.95
1137.55
1070.68
1056.43
1128.49
1057.9
924.066
1021.21
981.796
986.236
952.934
945.391
1042.72
993.142
976.687
941.984
1002.18
966.139
1014.54
990.244
966.077
955.397
976.691
1050.15
1032.5
1007.26
982.774
993.523
1124.43
1046.67
925.109
908.213
933.177
1084.32
923.006
1116.39
1036.15
960.15
966.408
1009.02
947.022
1007.58
971.069
1012.11
1098.23
1039.73
909.333
922.488
1122.44
966.562
1090.29
1089.94
1029.59
996.049
967.831
918.944
1147.2
906.757
999.578
951.097
995.937
920.683
1097.24
924.315
1076.76
957.691
1035.94
1009.91
916.516
920.802
904.906
943.153
957.833
1104.82
1044.65
1037.91
1160
973.421
924.611
1155.97
1036.32
942.08
961.532
1085.77
1179.11
1110.19
1077.44
908.88
929.878
984.245
982.373
1071.21
952.897
1082.22
975.62
1011.02
1092.71
1065.55
918.791
1108.96
931.844
921.047
939.772
1012.31
956.857
977.551
970.28
992.521
1139.57
950.55
992.172
1063.42
1030.99
966.444
978.672
1002.81
1095.58
1160.08
1139.89
1010.99
1081.54
935.096
905.896
1073.57
1120.12
1043.12
1077.67
1102.31
912.431
1097.02
1160.58
1020.78
929.572
999.993
1030.33
1027.64
1158.13
1074.63
1180.24
1050.86
925.623
978.2
939.089
1133.44
1067.84
1072.93
970.534
909.648
1059.24
1112.97
1089.06
904.963
1168.04
1020.74
1050.18
954.3
947.784
915.08
938.688
951.548
1079.66
1081.24
940.282
926.154
926.215
994.685
938.02
903.956
976.06
940.572
963.259
947.226
915.298
1075.59
1087.85
944.078
918.532
940.997
963.571
1045.93
953.973
1144.72
1098.1
1044.52
995.799
1177.95
1120.37
965.099
998.718
954.709
991.687
973.806
1035.92
1042.89
1023.16
1018.85
928.776
962.594
1162.54
1097.54
1140.37
1059.34
1119.59
946.619
1000.91
936.124
962.572
1058.05
991.638
985.786
1128.2
1076.16
1001.84
1080.37
908.181
1116.33
1136.18
913.187
914.626
1108.49
920.378
915.175
995.747
970.855
968.481
1043.84
910.518
1111.37
1056.92
1060.64
1008.6
1001.59
1066.78
953.711
1159.36
1120.29
1009.83
905.622
932.228
980.34
1098.36
1033.23
918.143
980.715
1090.04
920.99
992.547
937.057
1103.81
1104.55
1062.36
908.289
982.373
1132.33
1056.38
1059.4
906.554
1135.26
1045.52
1089.47
1085.62
1184.68
1112.25
955.618
1052.63
996.87
1017.09
998.382
1022.14
1073.69
1144.45
915.87
1020.9
979.979
1024.96
1000.66
972.122
1030.48
1001.33
983.021
1020.38
1009.18
981.467
1036.34
1068.72
1034.76
1011.09
1063.63
963.663
1041.7
975.515
1099.83
929.934
1149.43
1157.26
1091.72
1063.27
1128.53
1185.34
965.854
905.305
975.852
905.336
930.837
1151.8
955.916
961.769
905.959
1049.1
957.64
1020.66
916.454
1011.7
1017.02
1020.83
1087.89
1101.57
993.722
913.173
1188.92
970.732
955.153
979.073
994.255
956.267
934.766
1084.19
985.235
1141.71
1158.52
1040.69
1099.08
1098.02
905.778
919.885
1169.45
1068.78
1033.95
1010.74
1035.7
967.706
959.048
1034.67
976.939
1083.77
1144.66
1095.2
981.664
1114.04
1128.05
1085.84
1045.34
1005.53
905.425
1041.87
1087.14
1109.11
1001.24
1075.6
1069.9
974.601
988.844
974.421
1051
912.39
1126.65
1135.76
1010.27
914.301
1051.37
931.29
955.604
932.415
925.084
991.477
1129.91
967.201
976.852
969.915
974.284
984.41
970.086
960.679
903.192
931.179
905.9
983.772
926.97
919.14
928.61
977.794
973.626
1023.39
1138.5
927.204
1143.01
1035.18
1002.18
978.863
1011.42
914.681
988.056
1039.67
975.159
1021.59
988.15
980.611
1027.52
1095.45
966.383
1096.9
1082.05
1145.4
921.823
944.696
937.701
953.754
982.398
1010.84
1041.9
997.898
1138.8
982.929
950.8
961.128
1111.34
1064.38
1000.77
1080.71
1050.94
985.715
970.4
952.204
1003.71
1116.76
1061.31
925.919
1111.3
995.408
930.174
946.77
955.435
1000.9
1093.44
925.227
1065.86
1095.81
996.108
917.352
906.06
1034.64
1028.58
974.732
928.56
927.248
1021.96
1014.93
1182.37
919.442
970.278
943.759
939.696
994.63
1026.43
911.918
1141.7
1136.92
916.651
976.621
1144.39
949.55
1079.96
983.778
1141.53
979.005
989.764
974.827
988.772
930.894
994.53
988.152
936.327
1068.27
917.887
925.083
910.75
940.212
963.761
938.041
939.45
921.151
1142.04
1026.4
908.913
918.35
1044.36
1146.57
1138.58
909.768
953.187
908.031
1048.28
909.703
1145.53
907.732
1083.81
1111.14
973.104
924.479
907.556
1022.34
975.334
1087.2
975.847
971.464
1011.52
1053.98
904.157
991.785
1129.04
920.677
908.986
961.074
924.142
1076.88
987.675
1002.25
923.02
959.193
981.118
923.394
981.517
1010.4
958.333
958.385
933.258
928.023
1055.8
1080.73
1112.21
966.608
922.725
947.86
1110.39
903.967
953.307
1052.2
911.943
903.019
1022.69
946.254
983.612
981.007
959.66
970.805
970.003
962.422
992.79
1122.07
1073.49
1023.27
1002.3
1113.65
1063.02
945.884
949.83
954.32
1118.42
922.288
989.038
1151.67
1042.81
1157.8
935.622
1111.08
921.267
1024.72
1026.11
983.849
962.223
1013.72
1034.96
1105.05
1167.5
978.015
927.847
919.749
978.87
984.059
907.98
906.72
937.384
912.046
1070.04
1046.24
930.586
1028.98
917.859
1090.53
1016.08
994.808
934.647
921.205
1106.13
941.882
989.733
917.393
940.599
922.508
920.098
1087.36
1140.65
971.803
969.056
970.014
945.341
973.994
911.787
931.112
961.768
915.653
967.858
905.291
966.126
938.564
1004.57
1002.09
1010.16
954.309
989.745
1002.3
977.143
985.31
995.686
974.522
1014.73
1069.53
962.976
974.14
908.202
1055.05
952.606
963.366
948.49
1060.95
997.066
956.892
970.212
1093.7
1124.08
1111.09
1166.51
1128.77
964.25
966.616
1013.6
1120.45
941.482
911.352
903.644
938.039
962.032
1141.04
1145.57
1143.07
1142.18
1004.87
914.951
908.934
968.967
998.543
994.605
922.179
1012.66
947.014
1125.7
1105.36
1168.39
1106.27
1078.99
947.585
926.728
1094.17
920.781
922.033
1137.85
1091.03
1101.89
980.691
1070.43
994.979
957.911
1060.36
975.073
996.215
1085
978.117
920.871
916.838
923.608
1131.32
926.659
979.003
1021.11
954.561
998.273
929.405
1095.5
965.777
971.724
992.525
912.239
983.936
1021.6
920.404
1129.81
998.206
1103.8
996.417
1103.4
1000.14
972.81
1152.56
964.665
1047.02
1025.02
989.929
967.658
979.175
921.605
1169.06
1129.14
1137.95
1041.49
1078.72
935.505
904.63
1119.13
1056.05
1113.52
935.243
1071.39
948.107
996.303
911.195
1057.67
1008.61
997.579
970.556
1058.79
1013.18
911.809
1170.52
1128.43
1037.36
1042.89
1041.39
1011.32
998.183
1066.92
984.726
1021.89
925.023
1041.71
1077.48
976.741
996.61
907.176
1108.28
1027.55
1053.78
919.751
981.195
919.166
978.563
963.632
1049.15
1077.91
1031.29
956.519
1035.24
1104.72
973.513
917.64
907.691
1081.41
1116.69
906.113
1128.8
920.029
1026.52
1103.58
1035.79
1118.49
1048.82
1090.45
931.409
1081.12
1125.44
918.459
1092.12
1103.64
918.396
1121.74
1190.78
1176.98
1031.5
1145.99
1017.24
1109.96
1149
1151.45
1061.19
1033.18
928.913
912.896
1016.18
905.935
1026.6
1031
1090.91
998.377
1003.35
1062.5
1070.58
1072.91
938.03
939.418
957.542
1133.61
1122.7
1094.2
1056.46
1010.22
976.754
919.073
940.973
1089.02
961.391
943.711
1103.68
1053.1
917.05
1004.95
980.565
933.561
1131.08
1157.97
1175.27
1179.52
1132.67
991.204
1007.92
979.04
1165.9
1119.93
1134.79
1126.44
909.848
916.012
1098.44
1130.93
1085.06
1081.26
1097.21
1151.97
974.423
904.184
943.705
943.887
1103.98
1068.15
1065.82
911.423
1046.81
963.303
1082.82
907.571
946.806
1098.15
976.253
1103.47
970.371
1131.68
1086.21
905.494
991.506
1074.19
1073.58
929.438
957.029
945.348
1035.22
991.545
1034.27
913.094
1136.31
985.12
967.315
931.158
958.252
944.349
932.253
977.063
929.434
923.048
1058.73
1032.82
992.81
1019.51
1001.86
961.086
1078.85
906.181
1014.65
988.321
958.747
980.951
976.965
963.035
1009.55
979.86
967.908
1002.05
1083.96
1063.48
923.354
965.726
1040.61
1025.83
1002.29
905.187
905.005
930.466
1079.39
978.536
935.482
981.203
988.913
1033.96
998.802
966.224
1048.54
1163.74
1027.87
1018.06
1017.06
1031.91
1166.29
1146.49
1138.47
1174.52
1090.51
1085.28
905.749
1068.21
965.819
910.678
952.405
929.166
905.017
1127.13
904.215
906.291
1128.07
1077.71
920.995
1053.46
1164.35
979.63
999.986
1011.75
1070.06
1096.23
1032.73
999.449
993.309
990.422
997.432
985.134
1019.61
1002.23
923.306
934.093
932.146
924.379
1086.83
906.711
1010.47
947.039
908.077
905.322
914.489
1009.2
1014.42
986.967
1132.73
909.721
937.904
987.582
963.743
918.739
906.497
979.191
911.83
997.708
912.36
910.244
987.053
923.395
904.599
981.075
981.982
1152.22
1043.71
906.659
1088.36
930.071
1031.17
967.176
1019.72
1007.12
903.786
1019.32
1105.06
1009.25
1095.17
1038.94
987.52
1064.81
961.499
954.963
1073.38
1043.21
1026.53
1069.54
1115.35
923.239
912.28
1037.9
994.347
944.499
976.976
1018.59
1024.71
951.007
1003.81
1017.8
1103.09
1021.34
957.228
1114.74
1028.21
1081.59
1177.61
1155.06
929.109
945.86
1067.04
1009
1116.25
1028.54
992.279
1111.01
1127.19
906.063
968.095
1088.8
1122.73
1093.22
1060.26
1061.78
1130.42
1001.24
982.273
1059.44
1074.6
993.371
985.617
1000.35
1008.99
1020.42
924.774
927.287
916.776
1101.49
912.038
952.351
1101.01
973.429
1151.06
1066.72
1095
1083.49
1145.65
985.125
1087.05
1136.4
1020.39
1146.79
978.687
980.893
1005.98
1060.62
1139.49
1033.59
1111.62
1014.66
913.737
940.137
936.533
962.176
993.359
915.923
957.462
970.778
932.943
1141.13
917.995
1140.68
936.34
1072.59
995.625
943.739
970.948
1183.37
1125.8
905.315
961.349
959.466
958.706
910.523
1150.02
1121.21
944.371
1087.19
1170.8
1113.61
1016.11
942.849
995.925
1152.92
1125.53
1126.83
1006.78
995.885
1018.35
936.082
1144.41
1021.34
1029.96
903.83
950.625
1009.31
975.343
911.147
1020.62
971.733
968.044
1005.65
979.253
997.549
927.529
943.543
957.784
989.874
1179.91
1030.6
1163.83
1174.35
1160.34
922.887
973.108
970.117
1166.65
952.94
942.094
979.842
1009.98
936.752
1094.02
1019.52
1049.39
1121.66
931.004
1029.27
1055.83
1057.14
974.073
965.615
915.355
919.165
1003.75
1013.23
969.471
928.524
957.694
937.511
906.692
926.296
905.536
994.245
1008.22
914.753
966.622
988.362
1089.32
912.745
982.168
1115.74
1030.79
961.245
994.669
1027.92
1014.23
977.071
909.635
923.097
916.539
941.314
1006.74
1026.45
994.596
1020.35
977.066
937.639
941.481
991.868
906.968
1114.26
1134.12
923.246
928.136
903.014
933.995
911.631
960.763
1069.61
931.28
1015.76
1034.28
1188.48
1067.72
995.848
1018.63
910.057
971.131
982.209
967.387
981.384
962.517
976.715
938.772
942.266
1031.84
1054.64
981.944
986.466
968.754
947.322
1089.37
983.612
1023.91
1006.48
1192.4
1183.86
1088.45
947.85
951.141
1124.09
1151.36
1103.27
908.332
1149.85
1067.18
921.902
911.818
972.593
908.266
1105.86
923.108
904.445
1124.53
980.001
984.866
958.684
1092.59
1149.04
1037.85
1084.78
1134.13
973.204
1129.73
987.769
932.954
988.687
935.666
989.318
978.417
1009.17
972.723
1008.79
1032.99
936.101
995.437
1078.7
1094.22
985.317
1042.92
979.695
1057.58
1093.9
937.445
1108.24
1108.87
1132.26
1009.89
1108.09
1095.92
1146.62
995.13
1127.34
1132.58
1119.31
992.382
1014.22
973.603
1004.88
993.568
974.155
1028.28
1138.17
978.981
914.704
983.553
1062.68
958.23
984.716
1149.79
1036.57
921.083
1150.17
1183
1074.37
1139.79
1015.49
1024.66
971.853
977.224
1071.37
928.69
935.108
1142.03
1002.89
1076.08
1017.84
968.894
1035.24
1111.64
1062.86
1093.2
1157.34
913.895
1087.99
1092.89
1185.84
1133.58
944.826
1004.44
917.91
1055.93
1162.77
1119.95
1078.98
1172.17
932.73
1088.94
1033.99
1132.78
1062.67
1140.12
1155.19
1171.42
1005.71
1137.79
1044
1135.58
1018.84
1053.98
1042.22
997.9
1104.94
1190.24
1108.62
915.539
1101.05
1122.78
1091.57
942.149
974.067
975.701
968.995
1061.1
968.354
993.553
1029.81
926.623
1037.84
948.993
921.45
917.21
1045.32
1096.67
1102.44
1069.09
1094.31
1057.16
920.988
1046.14
1093.59
1112.5
1001.52
1152.19
1148.43
1143.88
922.677
1030.72
992.11
1133.33
944.886
908.138
1093.07
1139.66
975.361
1166.22
952.557
990.696
920.109
916.539
1117.34
1134.36
930.982
1070.28
1104.05
971.114
1172.11
950.314
945.998
1026.14
956.671
1025.57
1023.79
1156.58
1145.14
1176.65
904.083
1178.33
1157.66
1155.28
963.478
1169.69
995.118
1085.72
1065.72
935.779
1170.96
1169.3
1030.57
1023.02
969.64
967.353
1152.93
1134.19
1024.31
1121.42
954.802
908.166
928.099
1165.27
968.386
962.603
1083.48
958.506
1011.25
912.193
1150.28
1154.45
1176.22
1147
1029
1133.8
935.641
998.681
959.303
915.203
1090.79
1052.33
1050.61
1160.02
1008.93
1107.92
1024.2
1142.43
1149.91
1057.87
996.387
1027.62
1117.95
1069.9
1068.9
954.751
996.893
986.877
1134.4
1066.72
940.785
943.528
1025.53
956.46
922.859
1115.06
906.206
994.795
1151.88
905.878
1121.84
1120.8
1024.04
1019.7
1132.71
969.376
1055.74
1038.01
1130.95
975.62
974.418
1040.33
965.162
1092.34
1013.45
1011.2
1033.09
1107.4
1051.84
971.175
996.334
1030.15
937.522
927.582
1076.04
1006.28
977.194
1127.27
1116.11
1123.04
1022.98
976.845
903.136
1025.49
971.846
1047.75
948.776
990.453
906.918
931.878
939.236
956.599
947.901
1149.74
1122.12
1132.96
987.439
952.779
1028.13
947.684
1137.85
1180.69
1096.32
1144.26
1177.79
1066.23
961.436
1190.99
1189.84
934.03
937.412
936.096
1187.94
906.551
1015.89
1189.41
1189.92
920.68
1010.52
908.679
1011.28
1048.59
938.128
946.954
947.972
992.7
1002.81
1100.24
1087.96
1087.01
1043.39
1033.14
912.164
1046.29
940.272
911.227
926.296
976.749
974.928
1109.06
1121.69
1082.23
1137.54
1005.88
1008.1
1092.73
915.472
925.113
986.279
911.009
939.848
1036.89
1046.05
906.493
1064.2
1010.54
925.908
904.272
922.986
938.8
982.479
959.341
966.881
990.15
978.262
965.984
923.216
978.837
977.44
976.155
1069.72
1056.76
1112.42
1111.86
908.099
980.956
1037.43
1011.12
974.115
965.512
971.405
1043.06
977.441
963.209
925.927
986.144
1002.33
923.922
996.957
1126.2
1118.89
982.645
1119.21
1122.53
1131.88
950.363
905.284
904.713
973.318
973.918
1171.26
919.152
1093.93
1124.42
930.49
928.867
996.04
983.295
996.863
958.08
1179.49
956.093
925.431
1037.35
929.769
945.226
942.559
949.276
1180.87
940.137
1053.92
1057.16
1027.39
958.972
960.054
1185.5
904.102
994.94
988.735
1003.32
973.474
908.565
1128.36
903.597
1165.09
1167.51
907.581
980.338
1095.88
1103.65
1003.55
1004.41
1078.22
924.214
1039.65
1037.04
979.87
1026.3
964.402
933.606
945.132
1071.43
946.682
1110.74
904.376
1008.3
945.695
932.748
977.523
941.962
1080.23
985.629
1027.53
927.828
1117.6
1069.09
1032.99
928.18
1043.88
939.638
996.443
1028.88
921.866
919.054
1104.09
1022
983.116
958.134
963.38
1076.4
939.897
1002
957.734
970.897
934.831
1101.5
1065.37
1003.72
963.043
914.174
920.113
920.263
984.899
973.451
1061.83
1011.67
1035.68
1117.92
972.576
1010.95
1025.45
1107.81
914.642
1106.56
904.153
958.989
1093.23
1108.96
914.337
1069.34
1062.85
1086.52
904.51
1007.11
1038.93
1085.27
1085.08
1080.17
1095.03
969.323
1067.87
928.075
1184.28
923.523
1045.81
916.417
914.906
953.452
1003.43
979.455
932.432
921.453
934.401
978.185
993.799
974.6
972.541
1023.77
1119.25
958.688
975.069
968.783
1080.46
1063.69
1105.59
989.559
1096.35
1066.31
919.808
1093.34
985.206
1056.15
1094.73
979.034
1053.45
1077.08
1086.77
1083.27
1032.33
1011.92
1075.42
1017.16
989.295
969.615
1002.22
1004.12
939.984
930.77
994.961
1111.42
1113.81
987.376
1131.7
1039.06
1157.32
1013.13
1147.02
1006.2
1137.67
996.651
1002.66
1112.8
1065.47
1030.9
998.788
1036.99
961.157
923.922
926.388
1108.34
1118.87
1154.56
1120.04
986.37
941.276
976.195
1087.18
1021.71
1011.53
933.108
979.839
980.198
980.83
1103.2
1094.44
1055.41
976.413
990.923
1145.53
1139.03
1147.32
915.089
934.392
1108.7
980.996
909.793
956.101
1115.76
935.507
1056.56
1043.7
1046.16
1035.01
1124.01
915.05
928.219
1090.49
1033.18
930.317
948.975
1085.37
1009.46
1017.31
1108.56
999.229
1088.01
914.249
1102.81
1070.08
918.575
1024.1
1041.75
1140.66
1155.67
1164.2
1077.05
906.683
936.078
1112.7
1072.49
1050.16
1065.28
1115.96
906.743
1090.82
1128.35
1118.76
988.14
905.768
938.591
962.065
956.204
908.654
1007.5
1165.71
1084.06
1014.97
1139.03
1084.36
1130.24
1074.6
998.207
1064.81
1096.44
967.488
961.557
968.417
1010.16
1069.81
1147.26
914.958
1028.12
1158.69
1108.31
1124.67
1047.28
1178.6
912.256
1068.53
1096
1050.36
1140.43
1009.18
1082.91
1137.85
1152.5
1015
989.126
909.375
1141.9
1151.28
1128.75
1150.08
1046.33
931.369
1012.57
905.191
909.758
1085.18
969.552
989.949
908.292
922.143
932.444
958.22
927.855
908.447
1018.25
1081.1
1085.56
1065.97
1061.27
994.785
907.01
1108.06
1089.92
1032.92
906.528
1129.11
907.06
1017.92
1155.36
1180.7
917.346
1144.06
1145.13
1126.19
1135.97
951.914
905.519
948.655
972.876
979.071
925.955
996.548
910.297
908.218
1042.71
1089.31
1132
926.014
1110.78
1132.99
965.73
978.58
1147.01
909.42
1181.05
1169.69
1118.32
1007.74
1085.2
1120.54
1178.22
1169.2
909.261
1095.19
1097.35
1112.71
1156.73
1048.53
988.059
1111.67
984.73
992.171
1078.23
1077.89
1063.67
1092.04
1117.3
1071.04
1044.45
967.162
1035.05
942.079
1166.21
1121.55
1159.68
1154.89
993.22
991.84
1029.63
1040.43
1010.81
1072.97
1094.9
1071.4
1126.53
1113.91
998.724
999.582
1030.21
988.38
1006.98
1001.29
1071.18
1048.42
1088.88
1130.83
1043.81
947.372
1064.07
1180.01
1052.82
1028.12
1111.23
969.865
1104.37
1133.1
1114.51
1042.48
937.306
949.171
991.787
930.117
972.845
982.351
1098.2
1034.45
955.067
977.663
1067.79
1085.18
1034.79
1072.8
1095.39
1083.35
1128.67
1157.42
978.068
1076.25
1086.09
981.089
969.827
987.464
959.158
1135.73
1167.87
1069.48
965.919
981.142
1010.01
1029.84
982.128
1024.09
983.861
974.88
1134.04
1152.01
969.938
984.433
1043.52
1079.09
1021
1011.43
993.212
1010.14
1039.67
986.975
1081.18
994.93
1007.85
1052.64
1113.05
998.22
1024.56
1060.8
1080.14
971.416
1191.39
932.162
930.156
939.5
1029.56
990.024
1067.18
970.385
1057.79
1032.31
1119.65
1030.42
1139.66
1081.27
1114.9
1157.41
1165.95
1145.2
1069.58
988.877
968.636
995.838
1024.41
1025.29
967.394
1166.08
1014.51
1139.53
928.767
919.013
925.356
908.646