/*--------------------------------*- C++ -*----------------------------------*\
| =========                 |                                                 |
| \\      /  F ield         | OpenFOAM: The Open Source CFD Toolbox           |
|  \\    /   O peration     | Version:  2.2.1                                 |
|   \\  /    A nd           | Web:      www.OpenFOAM.org                      |
|    \\/     M anipulation  |                                                 |
\*---------------------------------------------------------------------------*/
FoamFile
{
    version     2.0;
    format      ascii;
    class       volScalarField;
    location    "0";
    object      rhok;
}
// * * * * * * * * * * * * * * * * * * * * * * * * * * * * * * * * * * * * * //

dimensions      [0 0 0 0 0 0 0];

internalField   nonuniform List<scalar> 
10292
(
0.981931
0.981664
0.96665
0.983982
0.992529
0.978799
0.983069
0.997669
0.944086
0.958359
0.97285
0.974379
0.968234
0.989418
0.995921
0.984848
0.966103
0.99049
0.99136
0.996158
0.985742
0.951714
0.959658
0.997454
0.959134
0.974701
0.972586
0.971119
0.957878
0.957401
0.9655
0.992706
0.95528
0.994454
0.988822
0.995979
0.944759
0.990473
0.978141
0.983174
0.981679
0.998153
0.993396
0.986116
0.95173
0.976169
0.968656
0.97587
0.997718
0.987655
0.980721
0.979493
0.997756
0.995853
0.998535
0.998844
0.996731
0.984901
0.997251
0.965972
0.96572
0.99315
0.981086
0.954985
0.985152
0.990915
0.993832
0.974946
0.982789
0.97268
0.966547
0.983165
0.983249
0.979873
0.974362
0.997066
0.984856
0.994618
0.94373
0.945403
0.991932
0.987706
0.976069
0.960162
0.980917
0.995449
0.993387
0.977633
0.998814
0.994198
0.97272
0.983068
0.994281
0.993314
0.999236
0.992746
0.989698
0.984
0.955918
0.996452
0.986
0.983513
0.993759
0.968419
0.989776
0.969982
0.979805
0.998613
0.955623
0.993407
0.952324
0.990681
0.997883
0.979576
0.989788
0.989995
0.962716
0.982186
0.983728
0.982466
0.99054
0.997112
0.995836
0.962981
0.981144
0.990976
0.990095
0.960282
0.949376
0.981257
0.955493
0.987725
0.965978
0.964996
0.9863
0.9812
0.994592
0.996699
0.994097
0.997969
0.998796
0.996504
0.988272
0.995472
0.99123
0.998888
0.989263
0.992045
0.988081
0.993906
0.992279
0.994068
0.973582
0.962532
0.98265
0.974992
0.966487
0.961799
0.998791
0.973382
0.952635
0.995388
0.966733
0.997189
0.979202
0.976546
0.998046
0.980658
0.96817
0.994904
0.946019
0.968276
0.979493
0.967523
0.948792
0.998732
0.995191
0.997742
0.995902
0.968242
0.998349
0.96536
0.977918
0.985055
0.962355
0.967896
0.962739
0.96731
0.967535
0.944007
0.988031
0.946996
0.947808
0.982862
0.963618
0.970038
0.998429
0.946371
0.995699
0.978696
0.942831
0.976651
0.996349
0.982744
0.970979
0.9605
0.996779
0.982852
0.965028
0.98062
0.998885
0.944751
0.99493
0.979324
0.973119
0.998015
0.996626
0.986251
0.953463
0.957684
0.9519
0.978847
0.985869
0.98049
0.951155
0.974185
0.996159
0.997746
0.999375
0.995929
0.989995
0.98695
0.991689
0.98139
0.967527
0.967527
0.982683
0.980231
0.997094
0.954616
0.962195
0.977955
0.980898
0.99899
0.995196
0.964174
0.975179
0.977262
0.952002
0.999146
0.993691
0.95789
0.987059
0.964345
0.976332
0.968837
0.951546
0.996188
0.965197
0.967933
0.994703
0.976078
0.952112
0.946464
0.996645
0.991744
0.985762
0.965318
0.960001
0.971197
0.969376
0.995511
0.960742
0.990282
0.997664
0.968152
0.958096
0.991262
0.975411
0.989613
0.985402
0.966748
0.972758
0.975032
0.967363
0.957667
0.958953
0.961742
0.954084
0.983378
0.963297
0.967342
0.978825
0.998318
0.999072
0.983904
0.983735
0.994865
0.987706
0.96446
0.953936
0.960533
0.966262
0.985751
0.994267
0.982027
0.977811
0.956499
0.981398
0.963361
0.962482
0.972479
0.987247
0.981332
0.998441
0.983598
0.985715
0.971619
0.998151
0.990267
0.973722
0.960058
0.987225
0.98545
0.966804
0.968766
0.987682
0.998067
0.992457
0.990088
0.974218
0.99558
0.96553
0.995739
0.987989
0.989895
0.981021
0.984784
0.982417
0.98829
0.972666
0.986054
0.964872
0.965182
0.998133
0.987506
0.949801
0.962499
0.965714
0.991214
0.981466
0.983369
0.982398
0.949152
0.953615
0.976887
0.99897
0.983071
0.965609
0.998035
0.96242
0.98928
0.961375
0.945817
0.977662
0.948259
0.997604
0.978253
0.966305
0.957332
0.9801
0.985563
0.971765
0.975838
0.947082
0.965575
0.952497
0.956107
0.972677
0.994392
0.968093
0.994121
0.991705
0.983278
0.992526
0.984458
0.992705
0.980202
0.960392
0.971966
0.989381
0.972312
0.967608
0.964326
0.983928
0.955617
0.976123
0.962191
0.998819
0.990505
0.994334
0.997505
0.984035
0.976702
0.993402
0.954474
0.974236
0.988785
0.99147
0.994628
0.976351
0.959664
0.952225
0.98319
0.995337
0.993984
0.971501
0.969213
0.985811
0.984285
0.972277
0.992397
0.997337
0.989081
0.983402
0.987397
0.997192
0.99923
0.97459
0.966738
0.994595
0.974505
0.97924
0.956544
0.957175
0.957438
0.977366
0.971295
0.953143
0.998603
0.981562
0.998728
0.97759
0.97961
0.987304
0.984427
0.997356
0.983396
0.956419
0.99816
0.988128
0.993652
0.943186
0.983292
0.960775
0.9952
0.996543
0.999251
0.963398
0.959855
0.975779
0.964003
0.97174
0.970525
0.99761
0.9805
0.983896
0.957583
0.979023
0.976819
0.988254
0.968641
0.963194
0.997136
0.99546
0.963769
0.997357
0.974321
0.976127
0.968899
0.959564
0.98522
0.986987
0.994115
0.951056
0.984059
0.978163
0.974022
0.998996
0.981454
0.956394
0.974855
0.983555
0.968074
0.984917
0.973762
0.997585
0.97099
0.95655
0.99508
0.992054
0.996148
0.976921
0.95793
0.993528
0.96256
0.989748
0.956775
0.968869
0.955957
0.980615
0.975752
0.963057
0.994526
0.995252
0.985615
0.99491
0.968647
0.98461
0.955763
0.959317
0.979379
0.960516
0.984615
0.965464
0.993181
0.977572
0.987411
0.993393
0.979058
0.974438
0.996874
0.981717
0.981923
0.98481
0.991543
0.967084
0.992215
0.984288
0.990818
0.980144
0.991119
0.998325
0.955162
0.978997
0.996877
0.963723
0.966582
0.998243
0.994631
0.986991
0.989875
0.949109
0.978827
0.973844
0.974406
0.969227
0.997806
0.998356
0.969816
0.972317
0.947637
0.997159
0.97246
0.996388
0.953747
0.99565
0.991703
0.99427
0.967801
0.986318
0.954479
0.965502
0.997617
0.964205
0.97306
0.99059
0.953599
0.947373
0.975702
0.976768
0.957525
0.988234
0.970658
0.996554
0.998646
0.986595
0.981107
0.996283
0.987283
0.983265
0.988843
0.985297
0.983433
0.950968
0.997032
0.967309
0.993919
0.99152
0.983911
0.953928
0.954151
0.950043
0.978974
0.992219
0.955458
0.964519
0.956963
0.975185
0.985415
0.94392
0.954838
0.976803
0.961271
0.979036
0.994909
0.976017
0.992409
0.987849
0.985593
0.979991
0.986324
0.989563
0.981502
0.994531
0.998179
0.994968
0.9791
0.978927
0.969865
0.971242
0.977143
0.980535
0.992483
0.997793
0.963001
0.961077
0.97455
0.967278
0.971699
0.993031
0.979031
0.975343
0.976695
0.971708
0.985785
0.969637
0.983478
0.964929
0.992655
0.998273
0.989872
0.98305
0.989109
0.998909
0.985149
0.99303
0.988801
0.967598
0.983753
0.985419
0.984182
0.983529
0.995429
0.987307
0.994152
0.995569
0.95064
0.973961
0.988589
0.967498
0.98359
0.991044
0.970991
0.975693
0.979942
0.972392
0.988841
0.983287
0.981091
0.990305
0.975186
0.998616
0.968574
0.993976
0.995074
0.998015
0.992164
0.984901
0.982189
0.992334
0.984506
0.95141
0.957762
0.980858
0.980633
0.986326
0.970929
0.964366
0.997551
0.957015
0.967213
0.99914
0.942879
0.969915
0.959181
0.976636
0.98691
0.995241
0.987819
0.991051
0.993907
0.964099
0.991868
0.996336
0.968844
0.984113
0.977787
0.977557
0.998347
0.978922
0.969392
0.98247
0.955137
0.975934
0.975028
0.985716
0.987865
0.989972
0.972304
0.975055
0.976993
0.985984
0.962678
0.982667
0.985926
0.995714
0.953584
0.970677
0.990705
0.995622
0.994223
0.996203
0.998512
0.994832
0.998647
0.980705
0.982656
0.986631
0.981538
0.998904
0.985309
0.986011
0.994174
0.984325
0.984686
0.953672
0.988668
0.990467
0.948832
0.988391
0.998357
0.987049
0.996996
0.988194
0.998508
0.974249
0.996555
0.987561
0.991886
0.99583
0.955274
0.982263
0.957896
0.988062
0.975718
0.980559
0.985189
0.984388
0.955684
0.99034
0.991828
0.962951
0.984869
0.994777
0.9523
0.965817
0.950039
0.987539
0.966823
0.96489
0.96611
0.952694
0.998109
0.988815
0.994755
0.991316
0.98533
0.949743
0.972512
0.99916
0.981185
0.978706
0.979033
0.968501
0.983008
0.981444
0.972313
0.998611
0.992126
0.977409
0.996226
0.966828
0.985153
0.951349
0.985027
0.992692
0.966394
0.971407
0.991206
0.949465
0.998439
0.985275
0.968815
0.998968
0.978828
0.98584
0.99642
0.968931
0.989626
0.982507
0.996738
0.99143
0.981679
0.983501
0.985863
0.996708
0.994848
0.99542
0.990499
0.994376
0.99241
0.983034
0.978972
0.966189
0.975404
0.982774
0.952652
0.984856
0.99811
0.962272
0.998563
0.962283
0.986858
0.998498
0.998756
0.97715
0.996516
0.956636
0.997124
0.959846
0.950405
0.995273
0.985108
0.979712
0.959545
0.970154
0.975074
0.979617
0.955072
0.989853
0.994746
0.992257
0.961934
0.98265
0.990307
0.994492
0.9553
0.964789
0.956498
0.997026
0.98453
0.98097
0.990857
0.993031
0.960928
0.963638
0.979055
0.988179
0.99731
0.968038
0.96128
0.973526
0.973083
0.994638
0.96465
0.965292
0.985949
0.979402
0.997517
0.979064
0.990141
0.943605
0.971776
0.976943
0.95326
0.970134
0.957192
0.985423
0.973066
0.992136
0.989907
0.976782
0.953645
0.979867
0.97911
0.98497
0.951165
0.969817
0.99439
0.988074
0.950785
0.964293
0.976457
0.994016
0.983373
0.996275
0.986385
0.980218
0.964223
0.982087
0.969512
0.978753
0.974015
0.975055
0.977843
0.969672
0.963698
0.972976
0.988005
0.966368
0.959442
0.983764
0.970457
0.950008
0.982856
0.966374
0.987728
0.952092
0.996875
0.970675
0.949475
0.974108
0.959903
0.957506
0.986755
0.952805
0.98317
0.965235
0.991591
0.989184
0.993802
0.985009
0.99376
0.991564
0.981639
0.954522
0.973018
0.977175
0.95692
0.988167
0.952444
0.977273
0.998278
0.982847
0.97133
0.991213
0.983093
0.978371
0.966419
0.958238
0.953239
0.986122
0.945431
0.955003
0.989367
0.989198
0.995502
0.995534
0.994467
0.946457
0.985644
0.977814
0.944624
0.998985
0.943508
0.993048
0.989462
0.994419
0.97976
0.964125
0.944677
0.966431
0.996722
0.985679
0.953091
0.977341
0.986079
0.984495
0.963474
0.996847
0.997853
0.99467
0.987664
0.982889
0.967863
0.99074
0.978728
0.993337
0.965447
0.990314
0.988036
0.981512
0.965466
0.979077
0.943351
0.942468
0.996224
0.994828
0.992878
0.998379
0.995073
0.99405
0.992089
0.987797
0.945318
0.990987
0.995862
0.995265
0.976866
0.975428
0.942798
0.998922
0.980167
0.998113
0.996221
0.998267
0.989191
0.984952
0.956889
0.970309
0.979789
0.999402
0.995287
0.971187
0.983594
0.982779
0.978679
0.962548
0.983545
0.996986
0.953641
0.997917
0.97464
0.99802
0.982336
0.977964
0.955567
0.972786
0.979552
0.970932
0.954789
0.958444
0.95235
0.971616
0.980731
0.994059
0.947044
0.954474
0.98935
0.944378
0.973844
0.952603
0.953322
0.953508
0.996088
0.983537
0.979823
0.947619
0.983243
0.979899
0.985526
0.991136
0.961596
0.948896
0.98533
0.950444
0.981565
0.966973
0.984936
0.976406
0.971652
0.945392
0.969748
0.962195
0.956578
0.973099
0.972526
0.984097
0.951354
0.977814
0.957601
0.955903
0.958631
0.990087
0.99563
0.977545
0.973343
0.955748
0.965173
0.980325
0.985847
0.980551
0.97362
0.982543
0.979397
0.979488
0.96308
0.956758
0.959769
0.949388
0.996086
0.9805
0.954652
0.96556
0.969862
0.998919
0.972017
0.942392
0.984947
0.952508
0.985331
0.987245
0.986344
0.994575
0.986466
0.979139
0.982561
0.981371
0.977672
0.971616
0.960764
0.985106
0.970866
0.959785
0.975571
0.9725
0.981798
0.952025
0.9441
0.995721
0.970268
0.993275
0.999206
0.980379
0.996682
0.950807
0.963373
0.990432
0.98652
0.993165
0.984073
0.983921
0.945173
0.981864
0.948161
0.997313
0.998332
0.977687
0.968332
0.995263
0.971934
0.97907
0.986688
0.946683
0.963717
0.958022
0.994129
0.992029
0.943403
0.963508
0.974884
0.973758
0.992983
0.996523
0.998675
0.99898
0.952209
0.997623
0.963532
0.97386
0.992166
0.970505
0.94256
0.989787
0.942613
0.985777
0.981515
0.997405
0.965188
0.949361
0.942754
0.968939
0.977836
0.950034
0.94391
0.967923
0.979597
0.978091
0.985874
0.949322
0.943233
0.987317
0.994274
0.961605
0.961447
0.983172
0.986993
0.994115
0.957952
0.963172
0.962204
0.988378
0.95143
0.949196
0.977748
0.98932
0.976999
0.982992
0.975705
0.970072
0.954644
0.982932
0.985752
0.985891
0.989503
0.976787
0.983235
0.977974
0.983052
0.972935
0.986042
0.97632
0.967012
0.985782
0.99886
0.997847
0.984944
0.980031
0.982266
0.995466
0.987121
0.953705
0.983398
0.966081
0.963025
0.985721
0.96835
0.994469
0.985562
0.979233
0.988044
0.967503
0.99141
0.989596
0.998092
0.99783
0.991184
0.996594
0.980958
0.956892
0.991014
0.97282
0.993696
0.9882
0.995682
0.971036
0.990882
0.992679
0.979433
0.985429
0.983642
0.99417
0.963373
0.980624
0.98066
0.969688
0.977214
0.98313
0.980632
0.970397
0.982847
0.993202
0.981626
0.971238
0.984639
0.996714
0.979565
0.976318
0.983274
0.972728
0.981187
0.965625
0.983121
0.984478
0.984959
0.971319
0.983267
0.963708
0.985826
0.9663
0.978595
0.995652
0.996024
0.973405
0.980971
0.966278
0.996218
0.997097
0.983126
0.98256
0.96899
0.981334
0.982761
0.997788
0.996431
0.967799
0.982443
0.983027
0.979136
0.994953
0.966171
0.99628
0.997514
0.979569
0.997036
0.984563
0.986649
0.964628
0.987648
0.980738
0.982518
0.974296
0.991113
0.980518
0.987983
0.996723
0.972177
0.986733
0.970776
0.994036
0.995515
0.989107
0.987462
0.994954
0.988968
0.999034
0.987895
0.972594
0.996785
0.994136
0.983806
0.97019
0.990121
0.986471
0.98928
0.969745
0.992918
0.984696
0.959332
0.987219
0.984095
0.969597
0.971663
0.963422
0.975463
0.981905
0.992593
0.982198
0.986108
0.941717
0.970717
0.989807
0.967287
0.966868
0.957185
0.992969
0.98327
0.971377
0.982033
0.976696
0.985046
0.98782
0.979602
0.975674
0.996777
0.974799
0.992396
0.997136
0.963637
0.989412
0.950678
0.984146
0.984106
0.990918
0.953345
0.978528
0.998515
0.989405
0.99508
0.997349
0.963708
0.999378
0.982045
0.972878
0.988799
0.975015
0.984945
0.972207
0.979732
0.965193
0.966363
0.983219
0.994114
0.994103
0.998807
0.99879
0.97775
0.995069
0.95574
0.966336
0.970046
0.958558
0.962901
0.99693
0.981619
0.98551
0.957255
0.957531
0.967444
0.969888
0.99899
0.979026
0.996464
0.990922
0.993748
0.991449
0.988023
0.981376
0.986775
0.986011
0.98088
0.981162
0.987529
0.946023
0.988943
0.995456
0.992602
0.993421
0.985541
0.98032
0.987429
0.969731
0.993505
0.990283
0.984607
0.963292
0.98011
0.965985
0.982624
0.98501
0.990551
0.994954
0.998334
0.981752
0.979232
0.969092
0.996804
0.96959
0.984322
0.988167
0.991073
0.942968
0.979628
0.974076
0.962387
0.986877
0.987879
0.986639
0.972703
0.962527
0.984233
0.986207
0.963594
0.996914
0.991026
0.991918
0.988032
0.993947
0.958682
0.995053
0.983002
0.997447
0.962582
0.978325
0.97101
0.95249
0.965864
0.968713
0.954303
0.968421
0.995187
0.975759
0.983641
0.982753
0.989413
0.990922
0.971457
0.981372
0.984663
0.991603
0.979564
0.986772
0.977092
0.981951
0.986785
0.988921
0.984662
0.969971
0.9735
0.978547
0.983445
0.981295
0.955114
0.970667
0.994978
0.998357
0.993365
0.963135
0.995399
0.956722
0.972771
0.98797
0.986718
0.978197
0.990596
0.978484
0.985786
0.977578
0.960354
0.972054
0.998133
0.995502
0.955512
0.986688
0.961943
0.962012
0.974082
0.98079
0.986434
0.996211
0.950559
0.998649
0.980084
0.989781
0.980813
0.995863
0.960552
0.995137
0.964649
0.988462
0.972812
0.978018
0.996697
0.99584
0.999019
0.991369
0.988433
0.959036
0.97107
0.972417
0.948001
0.985316
0.995078
0.948807
0.972735
0.991584
0.987694
0.962846
0.944178
0.957961
0.964512
0.998224
0.994024
0.983151
0.983525
0.965758
0.989421
0.963557
0.984876
0.977797
0.961458
0.96689
0.996242
0.958209
0.993631
0.995791
0.992046
0.977539
0.988629
0.98449
0.985944
0.981496
0.952086
0.98989
0.981566
0.967316
0.973803
0.986711
0.984266
0.979438
0.960885
0.947985
0.952021
0.977801
0.963692
0.992981
0.998821
0.965286
0.955976
0.971376
0.964466
0.959537
0.997514
0.960596
0.947885
0.975844
0.994086
0.980001
0.973935
0.974472
0.948373
0.965073
0.943952
0.969828
0.994875
0.98436
0.992182
0.953312
0.966432
0.965414
0.985893
0.99807
0.968152
0.957406
0.962188
0.999007
0.946393
0.975851
0.969964
0.98914
0.990443
0.996984
0.992262
0.98969
0.964068
0.963752
0.991944
0.994769
0.994757
0.981063
0.992396
0.999209
0.984788
0.991886
0.987348
0.990555
0.99694
0.964882
0.962431
0.991184
0.996294
0.991801
0.987286
0.970815
0.989205
0.951056
0.96038
0.971095
0.98084
0.944409
0.955925
0.98698
0.980256
0.989058
0.981663
0.985239
0.972815
0.971423
0.975369
0.97623
0.994245
0.987481
0.947492
0.960491
0.951925
0.968132
0.956081
0.990676
0.979817
0.992775
0.987486
0.968389
0.981672
0.982843
0.95436
0.964767
0.979632
0.963927
0.998364
0.956734
0.952764
0.997363
0.997075
0.958302
0.995924
0.996965
0.980851
0.985829
0.986304
0.971232
0.997896
0.957725
0.968616
0.967873
0.97828
0.979681
0.966644
0.989258
0.948127
0.955942
0.978035
0.998876
0.993554
0.983932
0.960327
0.973354
0.996371
0.983857
0.961992
0.995802
0.981491
0.992589
0.959239
0.95909
0.967529
0.998342
0.983525
0.953534
0.968724
0.968119
0.998689
0.952948
0.970896
0.962106
0.962875
0.943064
0.957549
0.988876
0.969475
0.980626
0.976581
0.980324
0.975571
0.965262
0.95111
0.996826
0.975819
0.984004
0.975009
0.979867
0.985576
0.973904
0.979734
0.983396
0.975924
0.978164
0.983707
0.972732
0.966257
0.973048
0.977782
0.967274
0.987267
0.971659
0.984897
0.960035
0.994013
0.950115
0.948549
0.961656
0.967346
0.954295
0.942932
0.986829
0.998939
0.98483
0.998933
0.993833
0.949641
0.988817
0.987646
0.998808
0.970181
0.988472
0.975868
0.996709
0.977659
0.976597
0.975834
0.962423
0.959686
0.981256
0.997365
0.942216
0.985854
0.988969
0.984185
0.981149
0.988747
0.993047
0.963162
0.982953
0.951659
0.948295
0.971863
0.960184
0.960397
0.998844
0.996023
0.94611
0.966245
0.97321
0.977852
0.97286
0.986459
0.98819
0.973066
0.984612
0.963245
0.951069
0.96096
0.983667
0.957192
0.954389
0.962832
0.970932
0.978893
0.998915
0.971627
0.962571
0.958179
0.979751
0.96488
0.96602
0.98508
0.982231
0.985116
0.9698
0.997522
0.95467
0.952848
0.977945
0.99714
0.969726
0.993742
0.988879
0.993517
0.994983
0.981705
0.954017
0.98656
0.98463
0.986017
0.985143
0.983118
0.985983
0.987864
0.999362
0.993764
0.99882
0.983246
0.994606
0.996172
0.994278
0.984441
0.985275
0.975322
0.9523
0.994559
0.951398
0.972964
0.979565
0.984227
0.977717
0.997064
0.982389
0.972065
0.984968
0.975683
0.98237
0.983878
0.974497
0.96091
0.986723
0.960621
0.96359
0.95092
0.995635
0.991061
0.99246
0.989249
0.98352
0.977831
0.97162
0.98042
0.95224
0.983414
0.98984
0.987774
0.957731
0.967123
0.979846
0.963857
0.969813
0.982857
0.98592
0.989559
0.979259
0.956648
0.967738
0.994816
0.957741
0.980918
0.993965
0.990646
0.988913
0.979821
0.961312
0.994955
0.966828
0.960838
0.980778
0.99653
0.998788
0.973071
0.974284
0.985054
0.994288
0.99455
0.975607
0.977015
0.943527
0.996112
0.985944
0.991248
0.992061
0.981074
0.974713
0.997616
0.95166
0.952616
0.99667
0.984676
0.951122
0.99009
0.964007
0.983244
0.951694
0.984199
0.982047
0.985035
0.982246
0.993821
0.981094
0.98237
0.992735
0.966346
0.996423
0.994983
0.99785
0.991958
0.987248
0.992392
0.99211
0.99577
0.951592
0.97472
0.998217
0.99633
0.971129
0.950685
0.952284
0.998046
0.989363
0.998394
0.970343
0.998059
0.950893
0.998454
0.963238
0.957772
0.985379
0.995104
0.998489
0.975532
0.984933
0.96256
0.984831
0.985707
0.977697
0.969205
0.999169
0.981643
0.954192
0.995865
0.998203
0.987785
0.995172
0.964625
0.982465
0.979551
0.995396
0.988161
0.983776
0.995321
0.983697
0.97792
0.988333
0.988323
0.993348
0.994395
0.968839
0.963853
0.957557
0.986678
0.995455
0.990428
0.957921
0.999207
0.989339
0.969559
0.997611
0.999396
0.975461
0.990749
0.983278
0.983799
0.988068
0.985839
0.985999
0.987516
0.981442
0.955585
0.965303
0.975346
0.97954
0.95727
0.967396
0.990823
0.990034
0.989136
0.956316
0.995542
0.982192
0.949666
0.971439
0.948439
0.992876
0.957784
0.995747
0.975056
0.974778
0.98323
0.987555
0.977257
0.973008
0.95899
0.946501
0.984397
0.994431
0.99605
0.984226
0.983188
0.998404
0.998656
0.992523
0.997591
0.965992
0.970752
0.993883
0.974204
0.996428
0.961894
0.976784
0.981038
0.993071
0.995759
0.958773
0.991624
0.982053
0.996521
0.99188
0.995498
0.99598
0.962528
0.95187
0.985639
0.986189
0.985997
0.990932
0.985201
0.997643
0.993778
0.987646
0.996869
0.986428
0.998942
0.986775
0.992287
0.979086
0.979582
0.977968
0.989138
0.982051
0.979539
0.984571
0.982938
0.980863
0.985096
0.977053
0.966094
0.987405
0.985172
0.99836
0.968989
0.989479
0.987327
0.990302
0.967811
0.980587
0.988622
0.985958
0.96126
0.955185
0.957782
0.946697
0.954245
0.98715
0.986677
0.97728
0.955911
0.991704
0.99773
0.999271
0.992392
0.987594
0.951792
0.950886
0.951386
0.951563
0.979027
0.99701
0.998213
0.986207
0.980291
0.981079
0.995564
0.977469
0.990597
0.95486
0.958929
0.946323
0.958745
0.964202
0.990483
0.994654
0.961166
0.995844
0.995593
0.95243
0.961793
0.959621
0.983862
0.965913
0.981004
0.988418
0.967929
0.984985
0.980757
0.963001
0.984377
0.995826
0.996632
0.995278
0.953736
0.994668
0.984199
0.975778
0.989088
0.980345
0.994119
0.960901
0.986845
0.985655
0.981495
0.997552
0.983213
0.97568
0.995919
0.954039
0.980359
0.959241
0.980717
0.959321
0.979971
0.985438
0.949489
0.987067
0.970597
0.974996
0.982014
0.986468
0.984165
0.995679
0.946189
0.954172
0.952411
0.971702
0.964255
0.992899
0.999074
0.956173
0.96879
0.957295
0.992951
0.965721
0.990379
0.980739
0.997761
0.968467
0.978278
0.980484
0.985889
0.968242
0.977364
0.997638
0.945896
0.954313
0.972529
0.971422
0.971722
0.977736
0.980363
0.966617
0.983055
0.975623
0.994995
0.971658
0.964503
0.984652
0.980678
0.998565
0.958343
0.974491
0.969243
0.99605
0.983761
0.996167
0.984287
0.987274
0.970171
0.964418
0.973741
0.988696
0.972952
0.959056
0.985297
0.996472
0.998462
0.963718
0.956662
0.998777
0.95424
0.995994
0.974696
0.959284
0.972841
0.956302
0.970235
0.961909
0.993718
0.963776
0.954912
0.996308
0.961576
0.959271
0.996321
0.955652
0.941844
0.944605
0.9737
0.950802
0.976552
0.958007
0.9502
0.949709
0.967762
0.973364
0.994217
0.997421
0.976764
0.998813
0.97468
0.9738
0.961817
0.980325
0.979331
0.9675
0.965884
0.965417
0.992394
0.992116
0.988492
0.953277
0.95546
0.961159
0.968707
0.977956
0.984649
0.996185
0.991805
0.962197
0.987722
0.991258
0.959264
0.96938
0.99659
0.979011
0.983887
0.993288
0.953785
0.948406
0.944946
0.944096
0.953466
0.981759
0.978416
0.984192
0.946819
0.956013
0.953041
0.954712
0.99803
0.996798
0.960313
0.953814
0.962989
0.963748
0.960557
0.949605
0.985115
0.999163
0.991259
0.991223
0.959204
0.966371
0.966836
0.997715
0.970637
0.987339
0.963436
0.998486
0.990639
0.960371
0.984749
0.959306
0.985926
0.953665
0.962757
0.998901
0.981699
0.965163
0.965284
0.994112
0.988594
0.99093
0.972956
0.981691
0.973147
0.997381
0.952737
0.982976
0.986537
0.993768
0.98835
0.99113
0.993549
0.984587
0.994113
0.99539
0.968254
0.973436
0.981438
0.976099
0.979628
0.987783
0.96423
0.998764
0.97707
0.982336
0.988251
0.98381
0.984607
0.987393
0.978089
0.984028
0.986418
0.979591
0.963209
0.967304
0.995329
0.986855
0.971877
0.974834
0.979542
0.998963
0.998999
0.993907
0.964121
0.984293
0.992904
0.983759
0.982217
0.973208
0.98024
0.986755
0.970291
0.947252
0.974426
0.976388
0.976587
0.973618
0.946742
0.950702
0.952306
0.945096
0.961898
0.962943
0.99885
0.966358
0.986836
0.997864
0.989519
0.994167
0.998997
0.954574
0.999157
0.998742
0.954386
0.964457
0.995801
0.969308
0.94713
0.984074
0.980003
0.97765
0.965988
0.960754
0.973453
0.98011
0.981338
0.981916
0.980514
0.982973
0.976078
0.979554
0.995339
0.993181
0.993571
0.995124
0.962634
0.998658
0.977905
0.990592
0.998385
0.998936
0.997102
0.978161
0.977116
0.982607
0.953454
0.998056
0.992419
0.982484
0.987251
0.996252
0.998701
0.984162
0.997634
0.980458
0.997528
0.997951
0.982589
0.995321
0.99908
0.983785
0.983604
0.949556
0.971258
0.998668
0.962328
0.993986
0.973767
0.986565
0.976057
0.978577
0.999243
0.976135
0.958988
0.978149
0.960966
0.972212
0.982496
0.967039
0.9877
0.989007
0.965324
0.971358
0.974695
0.966092
0.95693
0.995352
0.997544
0.972421
0.981131
0.9911
0.984605
0.976282
0.975059
0.989799
0.979238
0.976441
0.959381
0.975732
0.988554
0.957052
0.974359
0.963682
0.944478
0.948988
0.994178
0.990828
0.966592
0.978199
0.95675
0.974292
0.981544
0.957798
0.954561
0.998787
0.986381
0.962239
0.955455
0.961356
0.967947
0.967643
0.953915
0.979751
0.983545
0.968113
0.96508
0.981326
0.982877
0.97993
0.978203
0.975916
0.995045
0.994543
0.996645
0.959701
0.997592
0.98953
0.959798
0.985314
0.949789
0.966657
0.961001
0.963303
0.95087
0.982975
0.96259
0.952719
0.975921
0.950642
0.984263
0.983821
0.978804
0.967876
0.952102
0.973282
0.957676
0.977067
0.997253
0.991973
0.992693
0.987565
0.981328
0.996815
0.988508
0.985844
0.993411
0.951775
0.996401
0.951864
0.992732
0.965482
0.980875
0.991252
0.98581
0.943327
0.95484
0.998937
0.98773
0.988107
0.988259
0.997895
0.949995
0.955758
0.991126
0.962563
0.945839
0.957278
0.976777
0.99143
0.980815
0.949416
0.954894
0.954634
0.978645
0.980823
0.976329
0.992784
0.951117
0.975731
0.974007
0.999234
0.989875
0.978139
0.984931
0.997771
0.975876
0.985653
0.986391
0.97887
0.984149
0.98049
0.994494
0.991291
0.988443
0.982025
0.944017
0.97388
0.947234
0.945131
0.947932
0.995423
0.985378
0.985977
0.94667
0.989412
0.991581
0.984032
0.978004
0.99265
0.961195
0.976095
0.970122
0.955668
0.993799
0.974145
0.968833
0.968571
0.985185
0.986877
0.996929
0.996167
0.97925
0.977355
0.986106
0.994295
0.988461
0.992498
0.998662
0.994741
0.998893
0.981151
0.978356
0.997049
0.986676
0.982328
0.962137
0.997451
0.983566
0.956852
0.973842
0.987751
0.981066
0.974416
0.977154
0.984586
0.998073
0.995381
0.996692
0.991737
0.978651
0.974709
0.981081
0.97593
0.984587
0.992472
0.991704
0.981626
0.998606
0.957148
0.953175
0.995351
0.994373
0.999397
0.993201
0.997674
0.987847
0.966078
0.993744
0.976848
0.973144
0.942304
0.966455
0.98083
0.976275
0.997989
0.985774
0.983558
0.986523
0.983723
0.987497
0.984657
0.992246
0.991547
0.973633
0.969072
0.983611
0.982707
0.986249
0.990536
0.962126
0.983278
0.975218
0.978704
0.94152
0.943229
0.96231
0.99043
0.989772
0.955183
0.949728
0.959345
0.998334
0.950031
0.966564
0.99562
0.997636
0.985481
0.998347
0.958827
0.995378
0.999111
0.955094
0.984
0.983027
0.988263
0.961483
0.950193
0.972429
0.963044
0.953174
0.985359
0.954055
0.982446
0.993409
0.982263
0.992867
0.982136
0.984317
0.978165
0.985455
0.978242
0.973403
0.99278
0.980913
0.96426
0.961155
0.982937
0.971416
0.984061
0.968484
0.96122
0.992511
0.958352
0.958225
0.953547
0.978021
0.958382
0.960816
0.950677
0.980974
0.954533
0.953483
0.956139
0.981524
0.977157
0.985279
0.979023
0.981286
0.985169
0.974345
0.952366
0.984204
0.997059
0.983289
0.967464
0.988354
0.983057
0.950041
0.972686
0.995783
0.949966
0.943399
0.965127
0.952041
0.976902
0.975069
0.985629
0.984555
0.965727
0.994262
0.992978
0.951593
0.979423
0.964784
0.976432
0.986221
0.972951
0.957671
0.967429
0.96136
0.948531
0.997221
0.962402
0.961422
0.942832
0.953284
0.991035
0.979113
0.996418
0.968815
0.947446
0.956011
0.964203
0.945567
0.993454
0.962213
0.973201
0.953444
0.967466
0.951976
0.948962
0.945715
0.978858
0.952441
0.9712
0.952883
0.976232
0.969204
0.971556
0.98042
0.959013
0.941952
0.958277
0.996892
0.95979
0.955443
0.961686
0.99157
0.985187
0.98486
0.986201
0.96778
0.986329
0.981289
0.974038
0.994675
0.972433
0.990201
0.99571
0.996558
0.970937
0.960665
0.959512
0.966182
0.961137
0.968569
0.995802
0.970773
0.961282
0.9575
0.979695
0.949562
0.950313
0.951225
0.995465
0.973857
0.981578
0.953334
0.991023
0.998372
0.961386
0.952068
0.984928
0.946757
0.989489
0.981861
0.995978
0.996692
0.956532
0.953127
0.993804
0.965944
0.95919
0.985777
0.945577
0.989937
0.9908
0.974771
0.988666
0.974886
0.975243
0.948684
0.950972
0.944671
0.999183
0.944334
0.948469
0.948944
0.987304
0.946062
0.980976
0.962856
0.966856
0.992844
0.945809
0.94614
0.973886
0.975397
0.986072
0.986529
0.949414
0.953163
0.975138
0.955717
0.98904
0.998367
0.99438
0.946946
0.986323
0.987479
0.963303
0.988299
0.977751
0.997561
0.949944
0.94911
0.944756
0.9506
0.974201
0.95324
0.992872
0.980264
0.988139
0.996959
0.961842
0.969534
0.969877
0.947997
0.978213
0.958416
0.975161
0.951515
0.950017
0.968425
0.980723
0.974476
0.95641
0.966019
0.966219
0.98905
0.980621
0.982625
0.953119
0.966656
0.991843
0.991294
0.974893
0.988708
0.995428
0.956989
0.998759
0.981041
0.949625
0.998824
0.955632
0.95584
0.975193
0.976061
0.953458
0.986125
0.968851
0.972399
0.95381
0.984876
0.985116
0.971934
0.986968
0.961533
0.97731
0.97776
0.973381
0.95852
0.969632
0.985765
0.980733
0.97397
0.992496
0.994484
0.964791
0.978743
0.984561
0.954545
0.956779
0.955391
0.975404
0.984631
0.999373
0.974903
0.985631
0.97045
0.990245
0.981909
0.998616
0.993624
0.992153
0.98868
0.99042
0.950051
0.955575
0.953408
0.982512
0.989444
0.974374
0.990463
0.952429
0.943863
0.960737
0.951149
0.944443
0.966754
0.987713
0.941803
0.942032
0.993194
0.992518
0.992781
0.942413
0.99869
0.976822
0.942117
0.942016
0.995864
0.977895
0.998264
0.977744
0.970282
0.992374
0.990609
0.990406
0.98146
0.979437
0.959953
0.962408
0.962599
0.971323
0.973373
0.997567
0.970742
0.991946
0.997755
0.994741
0.98465
0.985014
0.958188
0.955662
0.963553
0.952492
0.978824
0.978381
0.961453
0.996906
0.994977
0.982744
0.997798
0.99203
0.972622
0.97079
0.998701
0.967161
0.977891
0.994818
0.999146
0.995403
0.99224
0.983504
0.988132
0.986624
0.98197
0.984348
0.986803
0.995357
0.984233
0.984512
0.984769
0.966057
0.968648
0.957516
0.957627
0.99838
0.983809
0.972515
0.977775
0.985177
0.986898
0.985719
0.971387
0.984512
0.987358
0.994815
0.982771
0.979534
0.995216
0.980609
0.95476
0.956221
0.983471
0.956158
0.955494
0.953624
0.989927
0.998943
0.999057
0.985336
0.985216
0.945748
0.99617
0.961214
0.955116
0.993902
0.994227
0.980792
0.983341
0.980627
0.988384
0.944103
0.988781
0.994914
0.97253
0.994046
0.990955
0.991488
0.990145
0.943826
0.991973
0.969216
0.968569
0.974522
0.988206
0.987989
0.9429
0.99918
0.981012
0.982253
0.979337
0.985305
0.998287
0.954328
0.999281
0.946982
0.946498
0.998484
0.983932
0.960825
0.959271
0.97929
0.979118
0.964357
0.995157
0.97207
0.972592
0.984026
0.97474
0.98712
0.993279
0.990974
0.965713
0.990664
0.957853
0.999125
0.97834
0.990861
0.99345
0.984495
0.991608
0.963955
0.982874
0.974494
0.994434
0.95648
0.966182
0.973401
0.994364
0.971224
0.992072
0.980711
0.974224
0.995627
0.996189
0.959181
0.975599
0.983377
0.988373
0.987324
0.96472
0.992021
0.979599
0.988453
0.985821
0.993034
0.9597
0.966926
0.979256
0.987391
0.997165